# vtk DataFile Version 3.0
vtk output
ASCII
DATASET POLYDATA
POINTS 151 float
0 0 2 1.31676 0 2.10911 1.25231 0.4069 2.10911 
2.1015 1.52683 2.43346 1.06528 0.77397 2.10911 1.52683 2.1015 2.43346 
0.77397 1.06528 2.10911 1.17661 3.62122 2.96421 0.802701 2.47046 2.43346 
0.4069 1.25231 2.10911 -1.66435e-007 3.80758 2.96421 -1.13544e-007 2.5976 2.43346 
-5.75572e-008 1.31676 2.10911 -0.802701 2.47046 2.43346 -0.4069 1.25231 2.10911 
-1.52683 2.1015 2.43346 -0.77397 1.06528 2.10911 -2.1015 1.52683 2.43346 
-1.06528 0.77397 2.10911 -1.25231 0.4069 2.10911 -1.31676 -1.15114e-007 2.10911 
-1.25231 -0.4069 2.10911 -2.1015 -1.52683 2.43346 -1.06528 -0.77397 2.10911 
-1.52683 -2.1015 2.43346 -0.77397 -1.06528 2.10911 -1.17661 -3.62122 2.96421 
-0.802701 -2.47046 2.43346 -0.4069 -1.25231 2.10911 4.99304e-007 -3.80758 2.96421 
3.40633e-007 -2.5976 2.43346 1.72672e-007 -1.31676 2.10911 0.802701 -2.47046 2.43346 
0.4069 -1.25231 2.10911 1.52683 -2.1015 2.43346 0.77397 -1.06528 2.10911 
2.1015 -1.52683 2.43346 1.06528 -0.77397 2.10911 1.25231 -0.4069 2.10911 
1.28453 0.20345 2.10911 0.658378 0 2.05455 0.626155 0.20345 2.05455 
1.15879 0.590435 2.10911 0.532639 0.386985 2.05455 0.919624 0.919624 2.10911 
0.386985 0.532639 2.05455 0.590435 1.15879 2.10911 0.20345 0.626155 2.05455 
0.20345 1.28453 2.10911 -2.87786e-008 0.658378 2.05455 -0.20345 1.28453 2.10911 
-0.20345 0.626155 2.05455 -0.590435 1.15879 2.10911 -0.386985 0.532639 2.05455 
-0.919624 0.919624 2.10911 -0.532639 0.386985 2.05455 -1.15879 0.590435 2.10911 
-0.626155 0.20345 2.05455 -1.28453 0.20345 2.10911 -0.658378 -5.75572e-008 2.05455 
-1.28453 -0.20345 2.10911 -0.626155 -0.20345 2.05455 -1.15879 -0.590435 2.10911 
-0.532639 -0.386985 2.05455 -0.919624 -0.919624 2.10911 -0.386985 -0.532639 2.05455 
-0.590435 -1.15879 2.10911 -0.20345 -0.626155 2.05455 -0.20345 -1.28453 2.10911 
8.63359e-008 -0.658378 2.05455 0.20345 -1.28453 2.10911 0.20345 -0.626155 2.05455 
0.590435 -1.15879 2.10911 0.386985 -0.532639 2.05455 0.919624 -0.919624 2.10911 
0.532639 -0.386985 2.05455 1.15879 -0.590435 2.10911 0.626155 -0.20345 2.05455 
1.28453 -0.20345 2.10911 1.92495 0.20345 2.27129 1.95718 0 2.27129 
1.86138 0.604801 2.27129 1.76787 0.788335 2.27129 1.58339 1.1504 2.27129 
1.81416 1.81416 2.43346 1.88243 2.59095 2.69884 1.43773 1.29605 2.27129 
1.1504 1.58339 2.27129 1.52037 2.77543 2.69884 1.16476 2.28598 2.43346 
0.989654 3.04584 2.69884 0.966864 1.6769 2.27129 0.6048 1.86138 2.27129 
0.588303 3.7144 2.96421 0.588303 3.10941 2.69884 0.40135 2.53403 2.43346 
-1.3999e-007 3.20259 2.69884 0.40135 1.89361 2.27129 -8.55509e-008 1.95718 2.27129 
-0.588303 3.7144 2.96421 -0.401351 3.13902 2.69884 -0.401351 2.53403 2.43346 
-0.989654 3.04584 2.69884 -0.20345 1.92495 2.27129 -0.604801 1.86138 2.27129 
-1.35172 2.86136 2.69884 -1.16476 2.28598 2.43346 -0.788336 1.76787 2.27129 
-1.1504 1.58339 2.27129 -1.81416 1.81416 2.43346 -1.29605 1.43773 2.27129 
-1.58339 1.1504 2.27129 -1.6769 0.966864 2.27129 -1.86138 0.6048 2.27129 
-1.89361 0.40135 2.27129 -1.95718 -1.71102e-007 2.27129 -1.92495 -0.20345 2.27129 
-1.86138 -0.604801 2.27129 -1.76787 -0.788336 2.27129 -1.58339 -1.1504 2.27129 
-1.81416 -1.81416 2.43346 -1.88243 -2.59095 2.69884 -1.43773 -1.29605 2.27129 
-1.1504 -1.58339 2.27129 -1.52037 -2.77543 2.69884 -1.16476 -2.28598 2.43346 
-0.989653 -3.04584 2.69884 -0.966864 -1.6769 2.27129 -0.6048 -1.86138 2.27129 
-0.588303 -3.7144 2.96421 -0.588303 -3.10941 2.69884 -0.40135 -2.53403 2.43346 
4.19969e-007 -3.20259 2.69884 -0.40135 -1.89361 2.27129 2.56653e-007 -1.95718 2.27129 
0.588304 -3.7144 2.96421 0.401351 -3.13902 2.69884 0.401351 -2.53403 2.43346 
0.989654 -3.04584 2.69884 0.20345 -1.92495 2.27129 0.604801 -1.86138 2.27129 
1.35172 -2.86136 2.69884 1.16476 -2.28598 2.43346 0.788336 -1.76787 2.27129 
1.1504 -1.58339 2.27129 1.81416 -1.81416 2.43346 1.29605 -1.43773 2.27129 
1.58339 -1.1504 2.27129 1.6769 -0.966864 2.27129 1.86138 -0.6048 2.27129 
1.89361 -0.40135 2.27129 
POLYGONS 249 996
3 1 40 39 
3 40 0 41 
3 41 2 39 
3 40 41 39 
3 2 41 42 
3 41 0 43 
3 43 4 42 
3 41 43 42 
3 4 43 44 
3 43 0 45 
3 45 6 44 
3 43 45 44 
3 6 45 46 
3 45 0 47 
3 47 9 46 
3 45 47 46 
3 9 47 48 
3 47 0 49 
3 49 12 48 
3 47 49 48 
3 12 49 50 
3 49 0 51 
3 51 14 50 
3 49 51 50 
3 14 51 52 
3 51 0 53 
3 53 16 52 
3 51 53 52 
3 16 53 54 
3 53 0 55 
3 55 18 54 
3 53 55 54 
3 18 55 56 
3 55 0 57 
3 57 19 56 
3 55 57 56 
3 19 57 58 
3 57 0 59 
3 59 20 58 
3 57 59 58 
3 20 59 60 
3 59 0 61 
3 61 21 60 
3 59 61 60 
3 21 61 62 
3 61 0 63 
3 63 23 62 
3 61 63 62 
3 23 63 64 
3 63 0 65 
3 65 25 64 
3 63 65 64 
3 25 65 66 
3 65 0 67 
3 67 28 66 
3 65 67 66 
3 28 67 68 
3 67 0 69 
3 69 31 68 
3 67 69 68 
3 31 69 70 
3 69 0 71 
3 71 33 70 
3 69 71 70 
3 33 71 72 
3 71 0 73 
3 73 35 72 
3 71 73 72 
3 35 73 74 
3 73 0 75 
3 75 37 74 
3 73 75 74 
3 37 75 76 
3 75 0 77 
3 77 38 76 
3 75 77 76 
3 38 77 78 
3 77 0 40 
3 40 1 78 
3 77 40 78 
3 80 1 39 
3 39 2 79 
3 80 39 79 
3 79 2 81 
3 81 2 42 
3 42 4 82 
3 81 42 82 
3 82 4 83 
3 3 83 86 
3 83 4 44 
3 44 6 86 
3 83 44 86 
3 3 86 84 
3 86 6 87 
3 87 5 84 
3 86 87 84 
3 85 5 89 
3 89 8 88 
3 88 8 90 
3 5 87 91 
3 87 6 46 
3 46 9 91 
3 87 46 91 
3 5 91 89 
3 91 9 92 
3 92 8 89 
3 91 92 89 
3 7 90 94 
3 90 8 95 
3 95 11 94 
3 90 95 94 
3 7 94 93 
3 94 11 96 
3 96 10 93 
3 94 96 93 
3 8 92 97 
3 92 9 48 
3 48 12 97 
3 92 48 97 
3 8 97 95 
3 97 12 98 
3 98 11 95 
3 97 98 95 
3 10 96 100 
3 96 11 101 
3 101 13 100 
3 96 101 100 
3 10 100 99 
3 100 13 102 
3 100 102 99 
3 11 98 103 
3 98 12 50 
3 50 14 103 
3 98 50 103 
3 11 103 101 
3 103 14 104 
3 104 13 101 
3 103 104 101 
3 102 13 106 
3 106 15 105 
3 102 106 105 
3 13 104 107 
3 104 14 52 
3 52 16 107 
3 104 52 107 
3 13 107 106 
3 107 16 108 
3 108 15 106 
3 107 108 106 
3 15 108 110 
3 108 16 54 
3 54 18 110 
3 108 54 110 
3 15 110 109 
3 110 18 111 
3 110 111 109 
3 17 111 112 
3 111 18 56 
3 56 19 112 
3 111 56 112 
3 112 19 113 
3 113 19 58 
3 58 20 114 
3 113 58 114 
3 114 20 115 
3 115 20 60 
3 60 21 116 
3 115 60 116 
3 116 21 117 
3 117 21 62 
3 62 23 118 
3 117 62 118 
3 118 23 119 
3 22 119 122 
3 119 23 64 
3 64 25 122 
3 119 64 122 
3 22 122 120 
3 122 25 123 
3 123 24 120 
3 122 123 120 
3 121 24 125 
3 125 27 124 
3 124 27 126 
3 24 123 127 
3 123 25 66 
3 66 28 127 
3 123 66 127 
3 24 127 125 
3 127 28 128 
3 128 27 125 
3 127 128 125 
3 26 126 130 
3 126 27 131 
3 131 30 130 
3 126 131 130 
3 130 30 132 
3 132 29 129 
3 130 132 129 
3 27 128 133 
3 128 28 68 
3 68 31 133 
3 128 68 133 
3 27 133 131 
3 133 31 134 
3 134 30 131 
3 133 134 131 
3 29 132 136 
3 132 30 137 
3 137 32 136 
3 132 137 136 
3 29 136 135 
3 136 32 138 
3 136 138 135 
3 30 134 139 
3 134 31 70 
3 70 33 139 
3 134 70 139 
3 30 139 137 
3 139 33 140 
3 140 32 137 
3 139 140 137 
3 138 32 142 
3 142 34 141 
3 138 142 141 
3 32 140 143 
3 140 33 72 
3 72 35 143 
3 140 72 143 
3 32 143 142 
3 143 35 144 
3 144 34 142 
3 143 144 142 
3 34 144 146 
3 144 35 74 
3 74 37 146 
3 144 74 146 
3 34 146 145 
3 146 37 147 
3 146 147 145 
3 36 147 148 
3 147 37 76 
3 76 38 148 
3 147 76 148 
3 148 38 149 
3 149 38 78 
3 78 1 150 
3 149 78 150 
3 150 1 80 

CELL_DATA 249
SCALARS Distance double
LOOKUP_TABLE default
0.378555 0.0920505 0.365611 0.269431 0.348775 0.0885894 0.31121 0.235758 0.279185 
0.0820059 0.220677 0.171709 0.176599 0.0729445 0.144114 0.125443 0.133461 0.0622922 
0.116661 0.104138 0.10546 0.0510917 0.120812 0.0817371 0.152479 0.0496493 0.197534 
0.133221 0.224471 0.0765863 0.260227 0.187095 0.283937 0.0961572 0.33147 0.226236 
0.354394 0.106446 0.372019 0.246814 0.372019 0.106446 0.354394 0.246814 0.33147 
0.0961572 0.283937 0.226236 0.260227 0.0765863 0.224471 0.187095 0.197534 0.0496492 
0.152479 0.133221 0.120812 0.0510917 0.10546 0.0817371 0.116661 0.0622922 0.133461 
0.104138 0.144114 0.0729445 0.176599 0.125443 0.220677 0.0820059 0.279185 0.17171 
0.31121 0.0885894 0.348775 0.235759 0.365611 0.0920505 0.378555 0.269431 0.648142 
0.627454 0.824972 0.796072 0.589945 0.543149 0.739496 0.661688 0.894574 0.486038 
0.427529 0.585415 0.986447 0.507935 0.812232 0.750563 0.950776 0.8038 0.861361 
0.644704 0.344977 0.271252 0.420311 0.696133 0.322681 0.550694 0.523169 0.948639 
0.630678 0.567825 0.692466 0.981825 0.644933 0.909401 0.837439 0.402437 0.216506 
0.199705 0.270227 0.44281 0.247979 0.409601 0.366775 0.794744 0.529681 0.603395 
0.625647 0.897824 0.737286 0.891245 0.339079 0.177457 0.190845 0.225731 0.38795 
0.276092 0.481887 0.380447 0.714041 0.875705 0.860254 0.461149 0.255354 0.300409 
0.33897 0.559374 0.398646 0.719691 0.545204 0.698371 0.361779 0.43638 0.497155 
0.864642 0.602651 0.829697 0.951518 0.53237 0.583519 0.689136 0.756868 0.640077 
0.657701 0.802252 0.825591 0.66929 0.651666 0.825431 0.802091 0.617152 0.566004 
0.756403 0.688671 0.907914 0.488766 0.4091 0.601927 0.995244 0.496431 0.838086 
0.776587 0.972462 0.778238 0.834919 0.638354 0.330036 0.284981 0.398227 0.686229 
0.338561 0.544356 0.505385 0.954682 0.651535 0.553009 0.719742 0.617984 0.883125 
0.825561 0.429482 0.223687 0.173861 0.275637 0.465239 0.225884 0.387506 0.347151 
0.816099 0.551631 0.584775 0.650835 0.920449 0.713262 0.865121 0.35028 0.188657 
0.205458 0.248132 0.415202 0.27038 0.45461 0.377975 0.732738 0.878178 0.887258 
0.450785 0.228465 0.296498 0.323352 0.575269 0.420982 0.720708 0.57232 0.688782 
0.389055 0.447564 0.508467 0.837397 0.585947 0.803316 0.94857 0.518062 0.557852 
0.662175 0.740072 0.614392 0.63443 0.79627 0.825171 
FIELD FieldData 1
vtkOriginalCellIds 1 249 vtkIdType
80 81 82 83 84 85 86 87 88 
89 90 91 92 93 94 95 96 97 
98 99 100 101 102 103 104 105 106 
107 108 109 110 111 112 113 114 115 
116 117 118 119 120 121 122 123 124 
125 126 127 128 129 130 131 132 133 
134 135 136 137 138 139 140 141 142 
143 144 145 146 147 148 149 150 151 
152 153 154 155 156 157 158 159 289 
290 291 293 425 426 427 429 560 561 
562 563 564 565 566 567 689 690 693 
696 697 698 699 700 701 702 703 824 
825 826 827 828 829 830 831 832 833 
834 835 836 837 838 839 960 961 962 
963 964 965 967 968 969 970 971 972 
973 974 975 1097 1098 1099 1104 1105 1106 
1107 1108 1109 1110 1111 1240 1241 1242 1243 
1244 1245 1247 1376 1377 1378 1379 1381 1513 
1514 1515 1517 1649 1650 1651 1653 1785 1786 
1787 1789 1920 1921 1922 1923 1924 1925 1926 
1927 2049 2050 2053 2056 2057 2058 2059 2060 
2061 2062 2063 2184 2185 2186 2187 2189 2190 
2191 2192 2193 2194 2195 2196 2197 2198 2199 
2320 2321 2322 2323 2324 2325 2327 2328 2329 
2330 2331 2332 2333 2334 2335 2457 2458 2459 
2464 2465 2466 2467 2468 2469 2470 2471 2600 
2601 2602 2603 2604 2605 2607 2736 2737 2738 
2739 2741 2873 2874 2875 2877 
POINT_DATA 151
SCALARS Distance double
LOOKUP_TABLE default
0.0204464 0.488566 0.461791 1.24094 0.386661 0.873903 0.269644 1.21446 0.578218 
0.162785 0.981363 0.452428 0.129183 0.583327 0.171737 0.899586 0.261847 1.21794 
0.375605 0.477901 0.51315 0.477901 1.21794 0.375605 0.899586 0.261847 1.19257 
0.583327 0.171737 0.981363 0.452428 0.129183 0.578218 0.162785 0.873903 0.269644 
1.24094 0.386661 0.461791 0.474734 0.173251 0.160307 0.424226 0.123025 0.328152 
0.106772 0.195918 0.0916155 0.145984 0.0748147 0.121793 0.0689073 0.216792 0.113962 
0.300917 0.149718 0.426753 0.172675 0.495526 0.180586 0.495526 0.172675 0.426753 
0.149718 0.300917 0.113962 0.216792 0.0689073 0.121793 0.0748147 0.145984 0.0916155 
0.195919 0.106772 0.328152 0.123025 0.424226 0.160307 0.474734 1.00205 1.02388 
0.958998 0.895661 0.771981 1.04633 1.29283 0.688895 0.56937 1.10952 0.723658 
0.896339 0.495645 0.351431 1.03002 0.766242 0.485571 0.716895 0.323949 0.290805 
1.0452 0.742055 0.484802 0.886475 0.28074 0.377532 1.02609 0.702063 0.422587 
0.55793 1.05674 0.637595 0.794753 0.845901 0.946802 0.964526 1.00144 0.982387 
0.946802 0.895654 0.794753 1.05674 1.31625 0.715087 0.55793 1.11822 0.702063 
0.886475 0.469141 0.377532 1.0452 0.787949 0.484802 0.716895 0.327588 0.290805 
1.03002 0.750039 0.485571 0.896339 0.307606 0.351431 1.04178 0.723658 0.423931 
0.56937 1.04633 0.627879 0.771981 0.834053 0.958998 0.980822 
NORMALS Normals float
0 0 -1 0.164595 0 -0.986361 0.156539 0.0508625 -0.986361 
0.262687 0.190854 -0.945817 0.13316 0.0967462 -0.986361 0.190854 0.262687 -0.945817 
0.0967462 0.13316 -0.986361 0.147076 0.452653 -0.879474 0.100338 0.308807 -0.945817 
0.0508625 0.156539 -0.986361 -2.08043e-008 0.475947 -0.879474 -1.41931e-008 0.324699 -0.945817 
-7.19465e-009 0.164595 -0.986361 -0.100338 0.308807 -0.945817 -0.0508625 0.156539 -0.986361 
-0.190854 0.262687 -0.945817 -0.0967462 0.13316 -0.986361 -0.262687 0.190853 -0.945817 
-0.13316 0.0967462 -0.986361 -0.156539 0.0508625 -0.986361 -0.164595 -1.43893e-008 -0.986361 
-0.156539 -0.0508625 -0.986361 -0.262687 -0.190854 -0.945817 -0.13316 -0.0967462 -0.986361 
-0.190853 -0.262687 -0.945817 -0.0967462 -0.13316 -0.986361 -0.147076 -0.452653 -0.879474 
-0.100338 -0.308807 -0.945817 -0.0508625 -0.156539 -0.986361 6.2413e-008 -0.475947 -0.879474 
4.25792e-008 -0.324699 -0.945817 2.1584e-008 -0.164595 -0.986361 0.100338 -0.308807 -0.945817 
0.0508625 -0.156539 -0.986361 0.190854 -0.262687 -0.945817 0.0967462 -0.13316 -0.986361 
0.262687 -0.190853 -0.945817 0.13316 -0.0967462 -0.986361 0.156539 -0.0508625 -0.986361 
0.160567 0.0254313 -0.986361 0.0822973 0 -0.993181 0.0782693 0.0254313 -0.993181 
0.144849 0.0738044 -0.986361 0.0665799 0.0483731 -0.993181 0.114953 0.114953 -0.986361 
0.0483731 0.0665799 -0.993181 0.0738044 0.144849 -0.986361 0.0254312 0.0782693 -0.993181 
0.0254312 0.160567 -0.986361 -3.59733e-009 0.0822973 -0.993181 -0.0254313 0.160567 -0.986361 
-0.0254313 0.0782693 -0.993181 -0.0738044 0.144849 -0.986361 -0.0483731 0.0665799 -0.993181 
-0.114953 0.114953 -0.986361 -0.0665799 0.0483731 -0.993181 -0.144849 0.0738043 -0.986361 
-0.0782693 0.0254312 -0.993181 -0.160567 0.0254312 -0.986361 -0.0822973 -7.19465e-009 -0.993181 
-0.160567 -0.0254313 -0.986361 -0.0782693 -0.0254313 -0.993181 -0.144849 -0.0738044 -0.986361 
-0.0665799 -0.0483731 -0.993181 -0.114953 -0.114953 -0.986361 -0.0483731 -0.0665799 -0.993181 
-0.0738043 -0.144849 -0.986361 -0.0254312 -0.0782693 -0.993181 -0.0254312 -0.160567 -0.986361 
1.0792e-008 -0.0822973 -0.993181 0.0254313 -0.160567 -0.986361 0.0254313 -0.0782693 -0.993181 
0.0738044 -0.144849 -0.986361 0.0483731 -0.0665799 -0.993181 0.114953 -0.114953 -0.986361 
0.0665799 -0.0483731 -0.993181 0.144849 -0.0738043 -0.986361 0.0782693 -0.0254312 -0.993181 
0.160567 -0.0254312 -0.986361 0.240619 0.0254313 -0.966089 0.244647 0 -0.966089 
0.232673 0.0756001 -0.966089 0.220984 0.0985419 -0.966089 0.197924 0.1438 -0.966089 
0.22677 0.22677 -0.945817 0.235304 0.323868 -0.912646 0.179717 0.162007 -0.966089 
0.1438 0.197924 -0.966089 0.190046 0.346928 -0.912646 0.145596 0.285747 -0.945817 
0.123707 0.38073 -0.912646 0.120858 0.209613 -0.966089 0.0756001 0.232673 -0.966089 
0.0735379 0.4643 -0.879474 0.0735379 0.388676 -0.912646 0.0501688 0.316753 -0.945817 
-1.74987e-008 0.400323 -0.912646 0.0501688 0.236701 -0.966089 -1.06939e-008 0.244647 -0.966089 
-0.0735379 0.4643 -0.879474 -0.0501688 0.392377 -0.912646 -0.0501688 0.316753 -0.945817 
-0.123707 0.38073 -0.912646 -0.0254313 0.240619 -0.966089 -0.0756001 0.232673 -0.966089 
-0.168965 0.35767 -0.912646 -0.145596 0.285747 -0.945817 -0.0985419 0.220984 -0.966089 
-0.1438 0.197924 -0.966089 -0.22677 0.22677 -0.945817 -0.162007 0.179717 -0.966089 
-0.197924 0.1438 -0.966089 -0.209613 0.120858 -0.966089 -0.232673 0.0756001 -0.966089 
-0.236701 0.0501688 -0.966089 -0.244647 -2.13877e-008 -0.966089 -0.240619 -0.0254313 -0.966089 
-0.232673 -0.0756001 -0.966089 -0.220984 -0.0985419 -0.966089 -0.197924 -0.1438 -0.966089 
-0.22677 -0.22677 -0.945817 -0.235304 -0.323868 -0.912646 -0.179717 -0.162007 -0.966089 
-0.1438 -0.197924 -0.966089 -0.190046 -0.346929 -0.912646 -0.145596 -0.285747 -0.945817 
-0.123707 -0.38073 -0.912646 -0.120858 -0.209613 -0.966089 -0.0756 -0.232673 -0.966089 
-0.0735378 -0.4643 -0.879474 -0.0735379 -0.388676 -0.912646 -0.0501688 -0.316753 -0.945817 
5.24961e-008 -0.400323 -0.912646 -0.0501688 -0.236701 -0.966089 3.20816e-008 -0.244647 -0.966089 
0.073538 -0.4643 -0.879474 0.0501689 -0.392377 -0.912646 0.0501689 -0.316753 -0.945817 
0.123707 -0.38073 -0.912646 0.0254313 -0.240619 -0.966089 0.0756001 -0.232673 -0.966089 
0.168965 -0.35767 -0.912646 0.145596 -0.285747 -0.945817 0.098542 -0.220984 -0.966089 
0.1438 -0.197924 -0.966089 0.22677 -0.22677 -0.945817 0.162007 -0.179717 -0.966089 
0.197924 -0.1438 -0.966089 0.209613 -0.120858 -0.966089 0.232673 -0.0756 -0.966089 
0.236701 -0.0501688 -0.966089 
