# vtk DataFile Version 3.0
vtk output
ASCII
DATASET POLYDATA
POINTS 1442 float
0 0 18 0 0 2 1.31676 0 17.8909 
2.5976 0 17.5665 3.80758 0 17.0358 4.9137 0 16.3131 
5.88579 0 15.4183 6.69733 0 14.3756 7.32619 0 13.2136 
7.7552 0 11.9639 7.97268 0 10.6606 7.97268 0 9.33937 
7.7552 0 8.03612 7.32619 0 6.78644 6.69733 0 5.62441 
5.88579 0 4.58175 4.9137 0 3.68688 3.80758 0 2.96421 
2.5976 0 2.43346 1.31676 0 2.10911 1.25231 0.4069 17.8909 
2.47046 0.802701 17.5665 3.62122 1.17661 17.0358 4.67321 1.51842 16.3131 
5.59772 1.81881 15.4183 6.36954 2.06959 14.3756 6.96762 2.26392 13.2136 
7.37564 2.39649 11.9639 7.58247 2.46369 10.6606 7.58247 2.46369 9.33937 
7.37564 2.39649 8.03612 6.96762 2.26392 6.78644 6.36954 2.06959 5.62441 
5.59772 1.81881 4.58175 4.67321 1.51842 3.68688 3.62122 1.17661 2.96421 
2.47046 0.802701 2.43346 1.25231 0.4069 2.10911 1.06528 0.77397 17.8909 
2.1015 1.52683 17.5665 3.0804 2.23804 17.0358 3.97527 2.8882 16.3131 
4.76171 3.45958 15.4183 5.41826 3.93659 14.3756 5.92701 4.30622 13.2136 
6.27409 4.55839 11.9639 6.45003 4.68622 10.6606 6.45003 4.68622 9.33937 
6.27409 4.55839 8.03612 5.92701 4.30622 6.78644 5.41825 3.93659 5.62441 
4.7617 3.45958 4.58175 3.97527 2.8882 3.68688 3.0804 2.23804 2.96421 
2.1015 1.52683 2.43346 1.06528 0.77397 2.10911 0.77397 1.06528 17.8909 
1.52683 2.1015 17.5665 2.23804 3.0804 17.0358 2.8882 3.97527 16.3131 
3.45958 4.76171 15.4183 3.93659 5.41826 14.3756 4.30622 5.92701 13.2136 
4.55839 6.27409 11.9639 4.68622 6.45003 10.6606 4.68622 6.45003 9.33937 
4.55839 6.27409 8.03612 4.30622 5.92701 6.78644 3.93659 5.41826 5.62441 
3.45958 4.7617 4.58175 2.8882 3.97527 3.68688 2.23804 3.0804 2.96421 
1.52683 2.1015 2.43346 0.77397 1.06528 2.10911 0.4069 1.25231 17.8909 
0.802701 2.47046 17.5665 1.17661 3.62122 17.0358 1.51842 4.67321 16.3131 
1.81881 5.59772 15.4183 2.06959 6.36954 14.3756 2.26392 6.96762 13.2136 
2.39649 7.37564 11.9639 2.46369 7.58247 10.6606 2.46369 7.58247 9.33937 
2.39649 7.37564 8.03612 2.26392 6.96762 6.78644 2.06959 6.36954 5.62441 
1.81881 5.59772 4.58175 1.51842 4.67321 3.68688 1.17661 3.62122 2.96421 
0.802701 2.47046 2.43346 0.4069 1.25231 2.10911 -5.75573e-008 1.31676 17.8909 
-1.13545e-007 2.5976 17.5665 -1.66435e-007 3.80758 17.0358 -2.14785e-007 4.9137 16.3131 
-2.57276e-007 5.88579 15.4183 -2.9275e-007 6.69733 14.3756 -3.20238e-007 7.32619 13.2136 
-3.38991e-007 7.7552 11.9639 -3.48497e-007 7.97268 10.6606 -3.48497e-007 7.97268 9.33937 
-3.38991e-007 7.7552 8.03612 -3.20238e-007 7.32619 6.78644 -2.9275e-007 6.69733 5.62441 
-2.57276e-007 5.88579 4.58175 -2.14785e-007 4.9137 3.68688 -1.66435e-007 3.80758 2.96421 
-1.13544e-007 2.5976 2.43346 -5.75572e-008 1.31676 2.10911 -0.4069 1.25231 17.8909 
-0.802701 2.47046 17.5665 -1.17661 3.62122 17.0358 -1.51842 4.67321 16.3131 
-1.81881 5.59772 15.4183 -2.06959 6.36954 14.3756 -2.26392 6.96762 13.2136 
-2.39649 7.37564 11.9639 -2.46369 7.58247 10.6606 -2.46369 7.58247 9.33937 
-2.39649 7.37564 8.03612 -2.26392 6.96762 6.78644 -2.06959 6.36954 5.62441 
-1.81881 5.59772 4.58175 -1.51842 4.67321 3.68688 -1.17661 3.62122 2.96421 
-0.802701 2.47046 2.43346 -0.4069 1.25231 2.10911 -0.77397 1.06528 17.8909 
-1.52683 2.1015 17.5665 -2.23804 3.0804 17.0358 -2.8882 3.97527 16.3131 
-3.45958 4.7617 15.4183 -3.93659 5.41826 14.3756 -4.30622 5.92701 13.2136 
-4.55839 6.27409 11.9639 -4.68622 6.45003 10.6606 -4.68622 6.45003 9.33937 
-4.55839 6.27409 8.03612 -4.30622 5.92701 6.78644 -3.93659 5.41825 5.62441 
-3.45958 4.7617 4.58175 -2.8882 3.97527 3.68688 -2.23804 3.0804 2.96421 
-1.52683 2.1015 2.43346 -0.77397 1.06528 2.10911 -1.06528 0.77397 17.8909 
-2.1015 1.52683 17.5665 -3.0804 2.23804 17.0358 -3.97527 2.8882 16.3131 
-4.76171 3.45958 15.4183 -5.41826 3.93659 14.3756 -5.92701 4.30622 13.2136 
-6.27409 4.55839 11.9639 -6.45003 4.68622 10.6606 -6.45003 4.68622 9.33937 
-6.27409 4.55839 8.03612 -5.92701 4.30622 6.78644 -5.41826 3.93659 5.62441 
-4.7617 3.45958 4.58175 -3.97527 2.8882 3.68688 -3.0804 2.23804 2.96421 
-2.1015 1.52683 2.43346 -1.06528 0.77397 2.10911 -1.25231 0.4069 17.8909 
-2.47046 0.802701 17.5665 -3.62122 1.17661 17.0358 -4.67321 1.51842 16.3131 
-5.59772 1.81881 15.4183 -6.36954 2.06959 14.3756 -6.96762 2.26392 13.2136 
-7.37564 2.39649 11.9639 -7.58247 2.46369 10.6606 -7.58247 2.46369 9.33937 
-7.37564 2.39649 8.03612 -6.96762 2.26392 6.78644 -6.36954 2.06959 5.62441 
-5.59772 1.81881 4.58175 -4.67321 1.51842 3.68688 -3.62122 1.17661 2.96421 
-2.47046 0.802701 2.43346 -1.25231 0.4069 2.10911 -1.31676 -1.15115e-007 17.8909 
-2.5976 -2.27089e-007 17.5665 -3.80758 -3.32869e-007 17.0358 -4.9137 -4.29569e-007 16.3131 
-5.88579 -5.14552e-007 15.4183 -6.69733 -5.85499e-007 14.3756 -7.32619 -6.40476e-007 13.2136 
-7.7552 -6.77981e-007 11.9639 -7.97268 -6.96993e-007 10.6606 -7.97268 -6.96993e-007 9.33937 
-7.7552 -6.77981e-007 8.03612 -7.32619 -6.40476e-007 6.78644 -6.69733 -5.85499e-007 5.62441 
-5.88579 -5.14552e-007 4.58175 -4.9137 -4.29569e-007 3.68688 -3.80758 -3.32869e-007 2.96421 
-2.5976 -2.27089e-007 2.43346 -1.31676 -1.15114e-007 2.10911 -1.25231 -0.4069 17.8909 
-2.47046 -0.802701 17.5665 -3.62122 -1.17661 17.0358 -4.67321 -1.51842 16.3131 
-5.59772 -1.81881 15.4183 -6.36954 -2.06959 14.3756 -6.96762 -2.26392 13.2136 
-7.37564 -2.39649 11.9639 -7.58247 -2.46369 10.6606 -7.58247 -2.46369 9.33937 
-7.37564 -2.39649 8.03612 -6.96762 -2.26392 6.78644 -6.36954 -2.06959 5.62441 
-5.59772 -1.81881 4.58175 -4.67321 -1.51842 3.68688 -3.62122 -1.17661 2.96421 
-2.47046 -0.802701 2.43346 -1.25231 -0.4069 2.10911 -1.06528 -0.77397 17.8909 
-2.1015 -1.52683 17.5665 -3.0804 -2.23804 17.0358 -3.97527 -2.8882 16.3131 
-4.7617 -3.45958 15.4183 -5.41825 -3.93659 14.3756 -5.92701 -4.30623 13.2136 
-6.27409 -4.55839 11.9639 -6.45003 -4.68622 10.6606 -6.45003 -4.68622 9.33937 
-6.27409 -4.55839 8.03612 -5.92701 -4.30622 6.78644 -5.41825 -3.93659 5.62441 
-4.7617 -3.45958 4.58175 -3.97527 -2.8882 3.68688 -3.0804 -2.23804 2.96421 
-2.1015 -1.52683 2.43346 -1.06528 -0.77397 2.10911 -0.77397 -1.06528 17.8909 
-1.52683 -2.1015 17.5665 -2.23804 -3.0804 17.0358 -2.8882 -3.97527 16.3131 
-3.45958 -4.76171 15.4183 -3.93659 -5.41826 14.3756 -4.30622 -5.92701 13.2136 
-4.55839 -6.27409 11.9639 -4.68622 -6.45003 10.6606 -4.68622 -6.45003 9.33937 
-4.55839 -6.27409 8.03612 -4.30622 -5.92701 6.78644 -3.93659 -5.41826 5.62441 
-3.45958 -4.76171 4.58175 -2.8882 -3.97527 3.68688 -2.23804 -3.0804 2.96421 
-1.52683 -2.1015 2.43346 -0.77397 -1.06528 2.10911 -0.4069 -1.25231 17.8909 
-0.802701 -2.47046 17.5665 -1.17661 -3.62122 17.0358 -1.51842 -4.67321 16.3131 
-1.81881 -5.59772 15.4183 -2.06959 -6.36954 14.3756 -2.26392 -6.96762 13.2136 
-2.39649 -7.37564 11.9639 -2.46369 -7.58247 10.6606 -2.46369 -7.58247 9.33937 
-2.39649 -7.37564 8.03612 -2.26392 -6.96762 6.78644 -2.06959 -6.36954 5.62441 
-1.81881 -5.59772 4.58175 -1.51842 -4.67321 3.68688 -1.17661 -3.62122 2.96421 
-0.802701 -2.47046 2.43346 -0.4069 -1.25231 2.10911 1.72672e-007 -1.31676 17.8909 
3.40634e-007 -2.5976 17.5665 4.99304e-007 -3.80758 17.0358 6.44354e-007 -4.9137 16.3131 
7.71828e-007 -5.88579 15.4183 8.78249e-007 -6.69733 14.3756 9.60713e-007 -7.32619 13.2136 
1.01697e-006 -7.7552 11.9639 1.04549e-006 -7.97268 10.6606 1.04549e-006 -7.97268 9.33937 
1.01697e-006 -7.7552 8.03612 9.60713e-007 -7.32619 6.78644 8.78249e-007 -6.69733 5.62441 
7.71828e-007 -5.88579 4.58175 6.44354e-007 -4.9137 3.68688 4.99304e-007 -3.80758 2.96421 
3.40633e-007 -2.5976 2.43346 1.72672e-007 -1.31676 2.10911 0.4069 -1.25231 17.8909 
0.802702 -2.47046 17.5665 1.17661 -3.62122 17.0358 1.51842 -4.67321 16.3131 
1.81881 -5.59772 15.4183 2.06959 -6.36954 14.3756 2.26392 -6.96762 13.2136 
2.39649 -7.37564 11.9639 2.46369 -7.58247 10.6606 2.46369 -7.58247 9.33937 
2.39649 -7.37564 8.03612 2.26392 -6.96762 6.78644 2.06959 -6.36954 5.62441 
1.81881 -5.59772 4.58175 1.51842 -4.67321 3.68688 1.17661 -3.62122 2.96421 
0.802701 -2.47046 2.43346 0.4069 -1.25231 2.10911 0.77397 -1.06528 17.8909 
1.52683 -2.1015 17.5665 2.23804 -3.0804 17.0358 2.8882 -3.97527 16.3131 
3.45958 -4.7617 15.4183 3.93659 -5.41825 14.3756 4.30623 -5.92701 13.2136 
4.55839 -6.27409 11.9639 4.68622 -6.45003 10.6606 4.68622 -6.45003 9.33937 
4.55839 -6.27409 8.03612 4.30623 -5.92701 6.78644 3.93659 -5.41825 5.62441 
3.45958 -4.7617 4.58175 2.8882 -3.97527 3.68688 2.23804 -3.0804 2.96421 
1.52683 -2.1015 2.43346 0.77397 -1.06528 2.10911 1.06528 -0.77397 17.8909 
2.1015 -1.52683 17.5665 3.0804 -2.23804 17.0358 3.97527 -2.8882 16.3131 
4.76171 -3.45958 15.4183 5.41826 -3.93659 14.3756 5.92701 -4.30622 13.2136 
6.27409 -4.55839 11.9639 6.45003 -4.68622 10.6606 6.45003 -4.68622 9.33937 
6.27409 -4.55839 8.03612 5.92701 -4.30622 6.78644 5.41826 -3.93659 5.62441 
4.76171 -3.45958 4.58175 3.97527 -2.8882 3.68688 3.0804 -2.23804 2.96421 
2.1015 -1.52683 2.43346 1.06528 -0.77397 2.10911 1.25231 -0.4069 17.8909 
2.47046 -0.802701 17.5665 3.62122 -1.17661 17.0358 4.67321 -1.51842 16.3131 
5.59772 -1.81881 15.4183 6.36954 -2.06959 14.3756 6.96762 -2.26392 13.2136 
7.37564 -2.39649 11.9639 7.58247 -2.46369 10.6606 7.58247 -2.46369 9.33937 
7.37564 -2.39649 8.03612 6.96762 -2.26392 6.78644 6.36954 -2.06959 5.62441 
5.59772 -1.81881 4.58175 4.67321 -1.51842 3.68688 3.62122 -1.17661 2.96421 
2.47046 -0.802701 2.43346 1.25231 -0.4069 2.10911 0.658378 0 17.9454 
1.28453 0.20345 17.8909 0.626155 0.20345 17.9454 1.15879 0.590435 17.8909 
0.532639 0.386985 17.9454 0.919624 0.919624 17.8909 0.386985 0.532639 17.9454 
0.590435 1.15879 17.8909 0.20345 0.626155 17.9454 0.20345 1.28453 17.8909 
-2.87786e-008 0.658378 17.9454 -0.20345 1.28453 17.8909 -0.20345 0.626155 17.9454 
-0.590435 1.15879 17.8909 -0.386985 0.532639 17.9454 -0.919624 0.919624 17.8909 
-0.532639 0.386985 17.9454 -1.15879 0.590435 17.8909 -0.626155 0.20345 17.9454 
-1.28453 0.20345 17.8909 -0.658378 -5.75573e-008 17.9454 -1.28453 -0.20345 17.8909 
-0.626155 -0.20345 17.9454 -1.15879 -0.590435 17.8909 -0.532639 -0.386985 17.9454 
[...]
CELL_DATA 2880
SCALARS Distance double
LOOKUP_TABLE default
15.9651 15.9626 15.9815 15.9668 15.9594 15.9528 15.98 15.9617 15.9476 
15.9391 15.9774 15.9531 15.9335 15.9259 15.9746 15.9439 15.9219 15.9176 
15.9722 15.9369 15.9162 15.9163 15.9708 15.9341 15.9176 15.9214 15.9705 
15.9357 15.9247 15.9302 15.9711 15.9404 15.9337 15.9384 15.972 15.9457 
15.9407 15.9426 15.9726 15.9491 15.9426 15.9407 15.9726 15.9491 15.9384 
15.9337 15.972 15.9457 15.9302 15.9247 15.9711 15.9404 15.9214 15.9176 
15.9705 15.9357 15.9163 15.9162 15.9708 15.9341 15.9176 15.9219 15.9722 
15.9369 15.9259 15.9335 15.9746 15.9439 15.9391 15.9476 15.9774 15.9531 
15.9528 15.9594 15.98 15.9617 15.9626 15.9651 15.9815 15.9668 0.378555 
0.0920505 0.365611 0.269431 0.348775 0.0885894 0.31121 0.235758 0.279185 0.0820059 
0.220677 0.171709 0.176599 0.0729445 0.144114 0.125443 0.133461 0.0622922 0.116661 
0.104138 0.10546 0.0510917 0.120812 0.0817371 0.152479 0.0496493 0.197534 0.133221 
0.224471 0.0765863 0.260227 0.187095 0.283937 0.0961572 0.33147 0.226236 0.354394 
0.106446 0.372019 0.246814 0.372019 0.106446 0.354394 0.246814 0.33147 0.0961572 
0.283937 0.226236 0.260227 0.0765863 0.224471 0.187095 0.197534 0.0496492 0.152479 
0.133221 0.120812 0.0510917 0.10546 0.0817371 0.116661 0.0622922 0.133461 0.104138 
0.144114 0.0729445 0.176599 0.125443 0.220677 0.0820059 0.279185 0.17171 0.31121 
0.0885894 0.348775 0.235759 0.365611 0.0920505 0.378555 0.269431 15.8916 15.7931 
15.7857 15.8208 15.9269 15.8154 15.9243 15.888 15.6484 15.4954 15.4771 
15.5377 15.7022 15.5227 15.6932 15.6369 15.2968 15.0905 15.0575 15.1458 
15.3643 15.117 15.3437 15.2727 14.8396 14.5815 14.5309 14.6484 14.919 
14.6027 14.8832 14.7995 14.2803 13.9652 13.8994 14.0481 14.37 13.9849 
14.3163 14.2218 13.5916 13.209 13.1276 13.3075 13.7015 13.2312 13.6353 
13.521 12.7889 12.3612 12.2621 12.469 12.9071 12.3745 12.8222 12.6997 
11.8994 11.4297 11.3151 11.5465 12.0253 11.4358 11.9227 11.7931 10.9297 
10.4213 10.2948 10.5472 11.063 10.4234 10.945 10.8092 9.88666 9.3336 
9.20507 9.47511 10.0275 9.34537 9.89794 9.75604 8.74855 8.15007 8.02437 
8.30689 8.90711 8.18095 8.77857 8.62213 7.537 6.91273 6.79105 7.07972 
7.70342 6.95605 7.57578 7.41125 6.27972 5.6351 5.5235 5.81247 6.45389 
5.69711 6.33084 6.16032 4.98835 4.33046 4.23507 4.51784 5.17003 4.41699 
5.05778 4.88146 3.67908 3.02032 2.94737 3.21527 3.86681 3.13529 3.77173 
3.59096 2.38481 1.76426 1.7212 1.95318 2.57213 1.902 2.50128 2.3224 
1.20095 0.648142 0.627454 0.824972 1.37096 0.796072 1.3279 1.16498 15.8812 
15.7753 15.7563 15.8026 15.9157 15.7892 15.908 15.871 15.6171 15.4503 
15.4027 15.488 15.67 15.4498 15.6473 15.5875 15.2323 15.0078 14.9212 
15.0518 15.2938 14.9779 15.2413 15.1696 14.7332 14.4536 14.3198 14.5002 
14.7989 14.382 14.7065 14.6276 14.126 13.7945 13.6087 13.841 14.1922 
13.6726 14.0523 13.9708 13.4064 13.0011 12.7854 13.0624 13.48 12.859 
13.2902 13.2093 12.5562 12.1065 11.8418 12.166 12.6325 11.9188 12.4112 
12.319 11.623 11.1337 10.8252 11.1918 11.6954 10.8992 11.4253 11.338 
10.617 10.0928 9.74943 10.1511 10.686 9.82059 10.3726 10.2911 9.54829 
8.99383 8.62787 9.05487 9.61551 8.69753 9.26776 9.19168 8.41897 7.82109 
7.4687 7.90292 8.49392 7.54365 8.12518 8.05288 7.21465 6.59246 6.25978 
6.68746 7.30443 6.35227 6.95202 6.86957 5.97518 5.33952 5.03327 5.44801 
6.07273 5.13575 5.7404 5.64795 4.71772 4.07594 3.81427 4.20135 4.82666 
3.92824 4.52257 4.42413 3.45861 2.82392 2.62616 2.9675 3.58153 2.75338 
3.32499 3.21757 2.23231 1.64416 1.51922 1.79749 2.36686 1.65315 2.17988 
2.06535 1.11516 0.589945 0.543149 0.739496 1.25079 0.661688 1.12585 1.01075 
15.8579 15.7391 15.7153 15.7708 15.8936 15.7509 15.8827 15.842 15.5549 
15.3565 15.2995 15.402 15.6152 15.3581 15.5894 15.5201 15.1006 14.8339 
14.728 14.8855 15.1703 14.7983 15.1089 15.0247 14.5118 14.1819 14.0158 
14.2339 14.5844 14.092 14.4743 14.3818 13.8002 13.4134 13.1794 13.4611 
13.87 13.2557 13.7004 13.6063 12.9802 12.5435 12.2378 12.5834 13.0422 
12.3094 12.8058 12.7159 12.0589 11.5583 11.2118 11.609 12.1179 11.2748 
11.8111 11.7307 11.0261 10.4897 10.0963 10.5323 11.0854 10.168 10.7391 
10.6636 9.93265 9.3703 8.92478 9.40394 9.97898 8.98898 9.58893 9.5135 
8.79757 8.21734 7.7339 8.24431 8.83193 7.78694 8.39096 8.33078 7.63752 
7.04688 6.54415 7.07117 7.66266 6.58781 7.18456 7.13909 6.46739 5.86764 
5.37369 5.90031 6.48802 5.41158 5.9911 5.95783 5.28407 4.67817 4.23722 
4.73315 5.31878 4.27513 4.82922 4.80367 4.10348 3.50797 3.13984 3.58376 
4.155 3.19136 3.71424 3.6868 2.95784 2.38895 2.1037 2.4835 3.02475 
2.17062 2.65663 2.61733 1.87839 1.35165 1.15704 1.46236 1.95888 1.23811 
1.67362 1.62335 0.894574 0.486038 0.427529 0.585415 0.986447 0.507935 0.812232 
0.750563 15.8258 15.6934 15.665 15.7273 15.8682 15.7071 15.8591 15.8112 
15.4886 15.2547 15.2096 15.3172 15.557 15.278 15.5276 15.454 14.9571 
14.6405 14.5599 14.7165 15.0466 14.6553 15.0013 14.9006 14.265 13.8744 
13.7443 13.9572 14.3638 13.8545 14.285 14.1649 13.4305 12.9753 12.7878 
13.059 13.5318 12.9061 13.4067 13.2771 12.4745 11.9656 11.7153 12.0446 
12.5717 11.8356 12.3931 12.2606 11.4204 10.8699 10.5546 10.9395 11.5079 
10.6712 11.2706 11.1418 10.294 9.71459 9.33567 9.77125 10.3668 9.4433 
10.0687 9.94966 9.12031 8.51532 8.08948 8.56819 9.17663 8.18361 8.81861 
8.71465 7.90279 7.28366 6.84706 7.34309 7.96145 6.9243 7.55239 7.4679 
6.6774 6.06611 5.6326 6.11617 6.72857 5.69676 6.30199 6.23945 5.48091 
4.88825 4.4614 4.93007 5.51696 4.52678 5.09788 5.04424 4.33444 3.76963 
3.3645 3.80872 4.35966 3.43058 3.95837 3.90744 3.25546 2.72628 2.37195 
2.77042 3.27663 2.4368 2.90688 2.86014 2.25846 1.77367 1.51041 1.83232 
2.28481 1.57253 1.97208 1.93061 1.36275 0.950776 0.8038 1.02951 1.40478 
0.861361 1.17948 1.1445 0.644704 0.344977 0.271252 0.420311 0.696133 0.322681 
0.550694 0.523169 15.7999 15.6463 15.6317 15.6918 15.8497 15.6832 15.8454 
15.7925 15.4225 15.1698 15.1392 15.2419 15.5007 15.2225 15.4878 15.4025 
14.8505 14.5045 14.4535 14.5996 14.9524 14.5653 14.9265 14.8122 14.096 
13.6625 13.5934 13.782 14.2196 13.7297 14.177 14.0377 13.1751 12.6668 
12.5825 12.8072 13.3198 12.7386 13.2596 13.1003 12.1158 11.5492 11.4485 
11.701 12.2747 11.6189 12.1994 12.0255 10.9504 10.3404 10.222 10.4956 
11.1132 10.4014 11.0255 10.8429 9.70995 9.07258 8.93486 9.2256 9.87011 
9.11937 9.76983 9.58333 8.42745 7.77923 7.62202 7.92509 8.57925 7.80788 
8.46685 8.2804 7.1367 6.49426 6.3193 6.6286 7.27506 6.50279 7.1522 
6.96963 5.87139 5.25093 5.06225 5.37035 5.99212 5.23865 5.86136 5.68678 
4.66397 4.08066 3.88513 4.18308 4.76407 4.04966 4.62868 4.46683 3.54447 
3.01187 2.82008 3.097 3.62255 2.96823 3.48778 3.34308 2.53916 2.06861 
1.89613 2.13864 2.59609 2.02386 2.46977 2.34617 1.66842 1.26887 1.13849 
1.33021 1.70908 1.24233 1.60243 1.50329 0.948639 0.630678 0.567825 0.692466 
0.981825 0.644933 0.909401 0.837439 0.402437 0.216506 0.199705 0.270227 0.44281 
0.247979 0.409601 0.366775 15.7896 15.6275 15.6318 15.6818 15.8437 15.6876 
15.8455 15.7914 15.3965 15.1311 15.1437 15.2212 15.4858 15.2382 15.4953 
15.4044 14.802 14.4407 14.4652 14.5648 14.9249 14.5982 14.9477 14.8199 
14.0223 13.5749 13.6146 13.7305 14.1762 13.7849 14.2174 14.0536 13.0788 
12.5575 12.6148 12.7408 13.2601 12.8201 13.3242 13.1263 11.997 11.416 
11.4929 11.6227 12.2015 11.73 12.2923 12.0631 10.8064 10.1817 10.2793 
10.4066 11.0291 10.5438 11.1493 10.8927 9.53946 8.88806 9.00666 9.1255 
9.7748 9.29335 9.92613 9.64664 8.2307 7.57039 7.70928 7.81421 8.47269 
8.01222 8.65565 8.35863 6.91575 6.26454 6.42196 6.50828 7.1581 6.73162 
7.37155 7.06325 5.63039 5.00604 5.17846 5.24307 5.86663 5.47842 6.10041 
5.79514 4.40959 3.82914 4.00603 4.0527 4.63321 4.2864 4.87349 4.58517 
3.28659 2.7658 2.93495 2.96908 3.49103 3.18808 3.72424 3.46085 2.29197 
1.84495 1.99442 2.02097 2.47058 2.21341 2.68403 2.45274 1.45315 1.09192 
1.2101 1.23301 1.59869 1.38899 1.78122 1.58835 0.794744 0.529681 0.603395 
0.625647 0.897824 0.737286 1.04043 0.891245 0.339079 0.177457 0.190845 0.225731 
0.38795 0.276092 0.481887 0.380447 15.7973 15.6428 15.663 15.6993 15.8512 
15.7166 15.858 15.8068 15.4251 15.1729 15.2215 15.27 15.517 15.3159 
15.5445 15.4562 14.8635 14.5207 14.6085 14.6593 14.9948 14.746 15.0562 
14.9278 14.1276 13.7034 13.8396 13.8832 14.2983 14.0214 14.4055 14.2353 
13.237 12.743 12.935 12.9623 13.446 13.1601 13.6092 13.3966 12.2154 
11.665 11.9063 11.921 12.4605 12.1628 12.6803 12.4313 11.09 10.4983 
10.7704 10.7832 11.3678 11.0622 11.6242 11.344 9.88868 9.26524 9.57274 
9.56404 10.1849 9.89557 10.4871 10.1744 8.63049 7.99039 8.34233 8.30301 
8.93746 8.68974 9.29784 8.95778 7.35023 6.71557 7.10737 7.03801 7.6692 
7.4714 8.08337 7.72264 6.08855 5.47555 5.89471 5.79904 6.41219 6.26604 
6.86992 6.49657 4.87607 4.29928 4.7287 4.61406 5.19561 5.09445 5.68194 
5.30531 3.74036 3.21253 3.62438 3.50788 4.04604 3.96291 4.5298 4.17065 
2.70549 2.23713 2.59601 2.50109 2.98629 2.89782 3.42866 3.10214 1.79212 
1.39242 1.67138 1.61055 2.03478 1.92824 2.40854 2.12357 1.0246 0.714041 
0.875705 0.860254 1.20856 1.0806 1.49726 1.26162 0.461149 0.255354 0.300409 
0.33897 0.559374 0.398646 0.719691 0.545204 15.8185 15.6841 15.7111 15.7355 
15.868 15.7572 15.8767 15.8313 15.4944 15.2754 15.3388 15.366 15.5797 
15.4224 15.614 15.5351 15.0065 14.7086 14.8215 14.8407 15.1306 14.9461 
15.206 15.0895 14.3669 13.9975 14.1573 14.172 14.5313 14.323 14.6602 
14.5033 13.5857 13.1391 13.3445 13.3499 13.788 13.552 13.9547 13.7581 
12.6579 12.1561 12.4275 12.405 12.8961 12.6757 13.1285 12.8916 11.6293 
11.0869 11.4244 11.3702 11.9025 11.7105 12.2055 11.9299 10.5257 9.95508 
10.3543 10.2675 10.8299 10.6735 11.2025 10.8916 9.37098 8.78454 9.2365 
9.11934 9.70054 9.58164 10.1373 9.79593 8.18891 7.59876 8.06714 7.94783 
8.53694 8.42193 9.01505 8.65639 7.00109 6.40904 6.86336 6.75414 7.35484 
7.22703 7.83205 7.46381 5.80734 5.22003 5.66396 5.55417 6.15113 6.02668 
6.63441 6.2611 4.63152 4.06848 4.4837 4.38592 4.96327 4.83474 5.43858 
5.07051 3.50706 2.97783 3.33625 3.26681 3.81665 3.66407 4.25749 3.90598 
2.45409 1.97088 2.23953 2.21645 2.72772 2.53022 3.104 2.7822 1.50752 
1.09086 1.24802 1.28213 1.72461 1.47219 1.99874 1.72715 0.698371 0.361779 
0.43638 0.497155 0.864642 0.602651 1.0218 0.829697 15.8436 15.7336 15.7561 
15.7749 15.8865 15.7924 15.8936 15.8543 15.5752 15.3957 15.4479 15.4694 
15.6477 15.5145 15.6753 15.6088 15.1717 14.9258 15.0115 15.0345 15.2764 
15.1137 15.3366 15.2395 14.6265 14.2971 14.4187 14.4427 14.7675 14.5564 
14.8556 14.7218 13.931 13.5461 13.7171 13.7261 14.1055 13.8895 14.2404 
14.0732 13.1288 12.695 12.9174 12.908 13.336 13.1237 13.5226 13.3218 
12.2331 11.7579 12.0298 12.0009 12.4711 12.2679 12.7107 12.4773 11.2582 
10.7492 11.0586 11.0181 11.5236 11.3248 11.8138 11.5504 10.2144 9.6613 
9.98225 9.94895 10.5019 10.2713 10.8127 10.5247 9.08348 8.50505 8.84832 
8.80682 9.38671 9.1549 9.72572 9.41714 7.91027 7.31999 7.67149 7.62902 
8.22427 7.98906 8.58432 8.26113 6.71477 6.11913 6.46276 6.42808 7.03255 
6.78418 7.39884 7.06785 5.50952 4.91435 5.23277 5.21566 5.82364 5.55056 
6.17948 5.84809 4.30623 3.71715 3.99107 4.00314 4.60885 4.29607 4.93567 
4.61252 3.11757 2.54246 2.755 2.80445 3.40011 3.03847 3.67549 3.37135 
1.96623 1.43089 1.56204 1.6517 2.21606 1.81202 2.42877 2.15195 0.951518 
0.53237 0.583519 0.689136 1.12656 0.756868 1.24468 1.03612 15.8621 15.771 
15.7797 15.8012 15.8987 15.8078 15.9014 15.8662 15.6349 15.4858 15.5059 
15.539 15.6934 15.556 15.7038 15.6478 15.2931 15.072 15.1023 15.1555 
15.3747 15.1828 15.3974 15.3182 14.7995 14.5139 14.5611 14.6215 14.9106 
14.6648 14.9442 14.8366 14.1897 13.853 13.9188 13.9839 14.3235 14.0456 
14.3747 14.2446 13.4803 13.0959 13.1807 13.2491 13.6361 13.3299 13.7064 
13.5542 12.6781 12.2499 12.3527 12.4237 12.8546 12.5231 12.9442 12.7709 
11.7867 11.2982 11.4074 11.4963 11.9843 11.6032 12.0881 11.8915 10.7769 
10.2479 10.3688 10.4619 10.9939 10.5817 11.1079 10.892 9.69397 9.1342 
9.2624 9.36122 9.92459 9.48951 10.05 9.81918 8.55221 7.9664 8.09655 
8.2031 8.79332 8.33485 8.92552 8.68273 7.361 6.75387 6.88012 6.99679 
7.60918 7.12624 7.74272 7.49128 6.12993 5.50497 5.61863 5.75111 6.38153 
5.86999 6.51041 6.25383 4.86406 4.22445 4.31934 4.46929 5.11515 4.57043 
5.22881 4.97147 3.57945 2.94244 3.01597 3.17928 3.82342 3.25994 3.91831 
3.66722 2.31094 1.69393 1.74405 1.91629 2.54113 1.97424 2.61466 2.37668 
1.11731 0.640077 0.657701 0.802252 1.31036 0.825591 1.35691 1.15229 15.8662 
15.7812 15.7725 15.8039 15.8997 15.7974 15.897 15.8621 15.6498 15.5105 
15.4903 15.5476 15.6987 15.5308 15.6883 15.6368 15.3236 15.1102 15.0798 
15.1708 15.3875 15.1435 15.3651 15.2985 14.8461 14.5744 14.5269 14.6469 
14.9307 14.6041 14.8975 14.8087 14.26 13.9384 13.8721 14.0214 14.3551 
13.9603 14.3044 14.2047 13.5762 13.207 13.1216 13.2996 13.6805 13.2194 
13.6109 13.5018 12.7998 12.3854 12.2821 12.4873 12.9124 12.3886 12.8235 
12.7065 11.9251 11.4433 11.3333 11.566 12.0525 11.4598 11.9487 11.8204 
10.9309 10.4096 10.2879 10.5415 11.0697 10.4226 10.9564 10.815 9.86296 
9.30682 9.17789 9.4481 10.0091 9.32051 9.88442 9.73698 8.73 8.14292 
8.01211 8.29409 8.88367 8.16295 8.75214 8.59875 7.54028 6.92655 6.79972 
7.08816 7.70183 6.9592 7.56887 7.40933 6.30217 5.66175 5.54808 5.83733 
6.47253 5.71844 6.34406 6.17807 5.01561 4.35723 4.26234 4.54506 5.19718 
4.44391 5.08352 4.9082 3.70597 3.0476 2.97407 3.24255 3.8938 3.16189 
3.79891 3.6182 2.40898 1.76856 1.7184 1.96531 2.59794 1.90736 2.52441 
2.34324 1.17376 0.66929 0.651666 0.825431 1.34894 0.802091 1.30263 1.13797 
15.8544 15.7601 15.7373 15.7818 15.8889 15.7652 15.8821 15.8437 15.6142 
15.4604 15.4072 15.4919 15.6615 15.4486 15.635 15.5802 15.2548 15.0336 
14.9479 15.0788 15.3102 14.9997 15.252 15.1858 14.7471 14.4545 14.3298 
14.5085 14.8195 14.3989 14.7332 14.6496 14.1144 13.7699 13.5947 13.8243 
14.188 13.6661 14.0572 13.9689 13.3812 12.9885 12.761 13.0415 13.4529 
12.8318 13.2715 13.1837 12.5561 12.1194 11.8414 12.1702 12.6242 11.9098 
12.3906 12.3064 11.6479 11.159 10.8493 11.2187 11.7123 10.9144 11.4286 
11.3498 10.6307 10.094 9.76581 10.1615 10.7084 9.84565 10.3987 10.3176 
9.5374 8.97071 8.62026 9.04091 9.61346 8.69966 9.28155 9.19628 8.39178 
7.80003 7.44176 7.87619 8.46873 7.52226 8.11532 8.03359 7.20405 6.59214 
6.24242 6.67813 7.28524 6.3272 6.92486 6.8441 5.98419 5.35713 5.03341 
5.45711 6.07354 5.12635 5.72269 5.6394 4.74063 4.10103 3.82569 4.22243 
4.84388 3.93095 4.52033 4.43045 3.48381 2.84679 2.6334 2.988 3.60435 
2.75446 3.32958 3.22909 2.24569 1.62988 1.49356 1.78659 2.38024 1.62807 
2.16884 2.05603 1.09075 0.617152 0.566004 0.756403 1.22357 0.688671 1.10839 
1.00174 15.8314 15.7162 15.6883 15.7438 15.8708 15.7243 15.863 15.8186 
15.542 15.3548 15.2888 15.3936 15.5966 15.3416 15.5649 15.5002 15.1092 
14.8538 14.7359 14.8976 15.1722 14.7994 15.1017 15.0233 14.539 14.2024 
14.042 14.2609 14.607 14.1111 14.4848 14.3992 13.8102 13.4118 13.1953 
13.4692 13.8886 13.2805 13.7273 13.6317 12.9678 12.5195 12.2338 12.5698 
13.0394 12.3154 12.821 12.722 12.0323 11.5418 11.1872 11.5826 12.0932 
11.2611 11.8071 11.7164 11.0208 10.4964 10.0778 10.5268 11.0687 10.1409 
10.715 10.6368 9.95092 9.39728 8.92806 9.42152 9.98515 8.97887 9.56861 
9.50565 8.82156 8.23022 7.75873 8.2694 8.85865 7.79854 8.39173 8.34515 
7.63896 7.03687 6.56543 7.07499 7.67736 6.61504 7.2071 7.16614 6.44619 
5.84083 5.37432 5.88196 6.48023 5.42837 6.01585 5.96908 5.25759 4.65534 
4.21896 4.70588 5.29303 4.27337 4.83669 4.79474 4.08554 3.49273 3.11451 
3.55973 4.12923 3.17596 3.70501 3.66378 2.94279 2.3688 2.08026 2.45861 
3.0019 2.1558 2.64001 2.59206 1.85236 1.32913 1.16765 1.44032 1.93176 
1.25415 1.67081 1.6097 0.907914 0.488766 0.4091 0.601927 0.995244 0.496431 
0.838086 0.776587 15.8069 15.6672 15.6456 15.7056 15.8533 15.6917 15.848 
15.7974 15.462 15.2351 15.1824 15.2915 15.53 15.2528 15.5066 15.4291 
14.9446 14.6363 14.5403 14.7044 15.0275 14.6296 14.9741 14.8755 14.268 
13.8859 13.7365 13.9596 14.3589 13.8386 14.2644 14.1512 13.4497 13.0019 
12.7925 13.0764 13.5417 12.9011 13.3968 13.2755 12.5005 11.9838 11.7332 
12.0717 12.5968 11.8423 12.3943 12.2718 11.4303 10.8705 10.5819 10.9537 
11.53 10.6904 11.2838 11.1664 10.2857 9.69656 9.3541 9.76825 10.3723 
9.47058 10.094 9.97465 9.09432 8.48878 8.09246 8.54673 9.16432 8.20356 
8.84396 8.72555 7.88307 7.2738 6.83313 7.31737 7.93441 6.92965 7.56515 
7.46267 6.67785 6.07676 5.60582 6.10721 6.71038 5.68602 6.29964 6.21706 
5.50208 4.9146 4.43796 4.9409 5.51829 4.50195 5.07906 5.01741 4.36146 
3.79457 3.3534 3.83396 4.38023 3.40363 3.93138 3.88947 3.27642 2.74558 
2.37125 2.79766 3.30379 2.41312 2.881 2.85481 2.27655 1.79625 1.50597 
1.85959 2.31178 1.54871 1.94819 1.93005 1.38912 0.972462 0.778238 1.04534 
1.43125 0.834919 1.15253 1.12975 0.638354 0.330036 0.284981 0.398227 0.686229 
0.338561 0.544356 0.505385 15.7914 15.6336 15.6275 15.6833 15.844 15.6818 
15.844 15.7896 15.4069 15.1498 15.132 15.2276 15.4893 15.2196 15.4849 
15.3968 14.8274 14.478 14.4432 14.5793 14.935 14.5609 14.9222 14.8035 
14.0688 13.6364 13.5799 13.756 14.1961 13.7237 14.1711 14.0258 13.1514 
12.6476 12.5655 12.7801 13.2926 12.7307 13.252 13.085 12.1002 11.5384 
11.4277 11.678 12.2491 11.6091 12.1901 12.0065 10.9436 10.3386 10.1974 
10.4796 11.0938 10.3894 11.0142 10.8199 9.71278 9.08072 8.90805 9.21743 
9.85814 9.1049 9.75632 9.55733 8.44088 7.79838 7.5948 7.92552 8.57546 
7.79049 8.45082 8.25316 7.16099 6.52105 6.29328 6.63875 7.28045 6.48201 
7.13321 6.94285 5.89851 5.27651 5.0388 5.39122 6.00794 5.21509 5.83937 
5.66196 4.68574 4.09866 3.86527 4.20968 4.78881 4.02418 4.60449 4.44519 
3.55579 3.01965 2.80425 3.12393 3.64983 2.94163 3.46214 3.32535 2.53976 
2.06884 1.88388 2.16358 2.6219 1.99677 2.44333 2.33238 1.66446 1.27223 
1.12781 1.35483 1.73308 1.21511 1.57572 1.4923 0.954682 0.651535 0.553009 
0.719742 1.00759 0.617984 0.883125 0.825561 0.429482 0.223687 0.173861 0.275637 
0.465239 0.225884 0.387506 0.347151 15.7924 15.6303 15.6431 15.6875 15.8479 
15.7003 15.8539 15.7998 15.4007 15.1354 15.1608 15.2297 15.4928 15.258 
15.5108 15.4185 14.8076 14.4465 14.4883 14.5763 14.9348 14.6245 14.9706 
14.8399 14.0295 13.5823 13.6416 13.745 14.1892 13.8112 14.2447 14.0793 
13.0875 12.5666 12.6409 12.7587 13.2762 12.8398 13.3483 13.1535 12.0073 
11.4269 11.5136 11.6441 12.221 11.7415 12.3084 12.087 10.8186 10.1946 
10.293 10.4314 11.0523 10.5466 11.1569 10.9101 9.55366 8.90331 9.0129 
9.15225 9.80072 9.28667 9.92455 9.6569 8.24717 7.58828 7.70728 7.84148 
8.49986 7.99508 8.64394 8.36108 6.9348 6.2854 6.41077 6.53485 7.18517 
6.70565 7.34887 7.05706 5.65197 5.02926 5.15744 5.26799 5.89252 5.45176 
6.07314 5.77926 4.433 3.85397 3.97979 4.07547 4.65717 4.2652 4.84952 
4.56108 3.31115 2.79159 2.90768 2.98981 3.51281 3.17498 3.70858 3.43379 
2.317 1.87109 1.96754 2.04063 2.49067 2.2062 2.67749 2.42561 1.47769 
1.11759 1.18283 1.25382 1.61862 1.37919 1.77872 1.56127 0.816099 0.551631 
0.584775 0.650835 0.920449 0.713262 1.02965 0.865121 0.35028 0.188657 0.205458 
0.248132 0.415202 0.27038 0.45461 0.377975 15.8111 15.6608 15.6884 15.7184 
15.8649 15.7419 15.8754 15.8257 15.4487 15.1997 15.2437 15.2973 15.5417 
15.337 15.5716 15.4832 14.8902 14.5443 14.6167 14.6793 15.0202 14.7519 
15.0703 14.9431 14.1456 13.7166 13.8334 13.8916 14.3126 14.0117 14.4042 
14.2364 13.2444 12.7452 12.9137 12.9585 13.4484 13.1346 13.5919 13.3831 
12.2117 11.6557 11.8806 11.9043 12.4504 12.1423 12.6534 12.4045 11.0744 
10.4765 10.7599 10.7561 11.3444 11.0589 11.6119 11.3252 9.86221 9.2382 
9.57926 9.54355 10.1589 9.91053 10.4926 10.172 8.60651 7.97286 8.36652 
8.29726 8.92418 8.71698 9.32198 8.973 7.33936 6.71253 7.13156 7.04829 
7.6713 7.48513 8.10618 7.74992 6.0925 5.48838 5.90149 5.82421 6.43105 
6.25992 6.87331 6.51308 4.89578 4.32467 4.71652 4.64004 5.22288 5.07017 
5.66471 5.30316 3.7673 3.23951 3.59936 3.52529 4.06822 3.93631 4.50254 
4.15059 2.73204 2.26196 2.56882 2.51036 2.99859 2.8755 3.40529 3.07553 
1.81826 1.41871 1.64527 1.62295 2.04315 1.90419 2.38847 2.09652 1.05086 